% Model:              FS.mph
% Version:            COMSOL 6.0.0.405
% Date:               Jan 23 2024, 13:12
% Dimension:          2
% Nodes:              10000
% Expressions:        2
% Description:        Velocity field, x component, Velocity field, y component
% Length unit:        null
% x                       y                        u @ 1: ReL=400, alfa=75 deg v @ 1: ReL=400, alfa=75 deg
0                         0                        1.1874570014595192       -0.16610418711132982
0                         1.0001000100010001E-4    1.1876850550155225       -0.166613936282288
0                         2.0002000200020003E-4    1.1879117942780486       -0.16712401319963155
0                         3.0003000300030005E-4    1.1881372192470976       -0.1676344178633606
0                         4.0004000400040005E-4    1.1883613299226692       -0.16814515027347507
0                         5.000500050005E-4        1.1885841263047645       -0.16865621042997503
0                         6.000600060006001E-4     1.1888056083933818       -0.16916759833286035
0                         7.000700070007E-4        1.1890257761885226       -0.16967931398213112
0                         8.000800080008001E-4     1.189244629690186        -0.17019135737778746
0                         9.000900090009002E-4     1.1894621688983724       -0.17070372851982912
0                         0.001000100010001        1.1896783938130813       -0.17121642740825618
0                         0.0011001100110011       1.1898933044343134       -0.17172945404306886
0                         0.0012001200120012002    1.1901069007620684       -0.1722428084242668
0                         0.0013001300130013002    1.1903191827963469       -0.17275649055185036
0                         0.0014001400140014       1.1905301505371477       -0.17327050042581926
0                         0.0015001500150015003    1.1907398039844712       -0.1737848380461736
0                         0.0016001600160016002    1.190948143138318        -0.1742995034129134
0                         0.0017001700170017002    1.1911551679986876       -0.17481449652603864
0                         0.0018001800180018003    1.19136087856558         -0.17532981738554934
0                         0.0019001900190019003    1.1915652748389955       -0.17584546599144552
0                         0.002000200020002        1.1917683568189334       -0.17636144234372703
0                         0.0021002100210021       1.1919701541711603       -0.17687436527954975
0                         0.0022002200220022       1.192170024988246        -0.17738743595252748
0                         0.0023002300230023005    1.19236795573198         -0.1779007921448338
0                         0.0024002400240024004    1.1925639464023623       -0.17841443385646882
0                         0.0025002500250025004    1.192757996999393        -0.17892836108743243
0                         0.0026002600260026003    1.1929501075230715       -0.17944257383772463
0                         0.0027002700270027003    1.1931402779733984       -0.17995707210734543
0                         0.0028002800280028       1.1933285083503733       -0.1804718558962949
0                         0.0029002900290029006    1.1935147986539967       -0.180986925204573
0                         0.0030003000300030005    1.1936991488842683       -0.1815022800321797
0                         0.0031003100310031005    1.193881559041188        -0.182017920379115
0                         0.0032003200320032004    1.194062029124756        -0.18253384624537894
0                         0.0033003300330033004    1.1942405591349718       -0.18305005763097149
0                         0.0034003400340034003    1.1944171490718365       -0.18356655453589268
0                         0.0035003500350035003    1.194591798935349        -0.1840833369601425
0                         0.0036003600360036006    1.1947645087255099       -0.18460040490372095
0                         0.0037003700370037006    1.1949352784423186       -0.185117758366628
0                         0.0038003800380038005    1.195104108085776        -0.18563539734886367
0                         0.0039003900390039005    1.195270997655882        -0.18615332185042802
0                         0.004000400040004        1.1954359471526355       -0.18667153187132093
0                         0.004100410041004101     1.1955989565760372       -0.1871900274115424
0                         0.0042004200420042       1.1957600259260872       -0.18770880847109256
0                         0.004300430043004301     1.1959191552027857       -0.18822787504997135
0                         0.0044004400440044       1.196076344406132        -0.18874722714817874
0                         0.004500450045004501     1.196232265070701        -0.18926380842060003
0                         0.004600460046004601     1.19638521593127         -0.1897776668093983
0                         0.0047004700470047005    1.1965344797762232       -0.19029032065752982
0                         0.004800480048004801     1.1966800566055602       -0.1908017699649945
0                         0.0049004900490049       1.1968219464192813       -0.19131201473179243
0                         0.005000500050005001     1.1969601492173858       -0.19182105495792354
0                         0.0051005100510051       1.1970946649998742       -0.19232889064338785
0                         0.005200520052005201     1.1972254937667466       -0.1928355217881854
0                         0.005300530053005301     1.1973526355180029       -0.1933409483923161
0                         0.0054005400540054005    1.1974760902536432       -0.19384517045578004
0                         0.005500550055005501     1.1976024407104273       -0.19435889737452078
0                         0.0056005600560056       1.1977250121266279       -0.19487311683088032
0                         0.005700570057005701     1.197842189258905        -0.1953853853870393
0                         0.005800580058005801     1.1979539721072596       -0.19589570304299775
0                         0.005900590059005901     1.198060360671691        -0.19640406979875566
0                         0.006000600060006001     1.1981613549521994       -0.196910485654313
0                         0.006100610061006101     1.1982569549487851       -0.19741495060966974
0                         0.006200620062006201     1.1983471606614482       -0.19791746466482604
0                         0.0063006300630063005    1.198431972090188        -0.19841802781978174
0                         0.006400640064006401     1.1985113892350048       -0.19891664007453688
0                         0.006500650065006501     1.198585412095899        -0.19941330142909153
0                         0.006600660066006601     1.1986540406728698       -0.19990801188344554
0                         0.006700670067006701     1.1987173865467238       -0.2003998088619838
0                         0.006800680068006801     1.1987757961164578       -0.20088820409042857
0                         0.006900690069006901     1.1988291668649247       -0.20137532456423982
0                         0.0070007000700070005    1.1988774987921256       -0.20186117028341757
0                         0.007100710071007101     1.198920791898059        -0.20234574124796167
0                         0.007200720072007201     1.1989590461827262       -0.2028290374578723
0                         0.007300730073007301     1.198992261646126        -0.20331105891314932
0                         0.007400740074007401     1.1990204382882592       -0.20379180561379281
0                         0.007500750075007501     1.1990435761091258       -0.2042712775598028
0                         0.007600760076007601     1.1990616751087257       -0.20474947475117922
0                         0.0077007700770077014    1.1990747352870592       -0.2052263971879221
0                         0.007800780078007801     1.1990827566441253       -0.20570204487003138
0                         0.0079007900790079       1.1990857391799246       -0.20617641779750717
0                         0.008000800080008        1.1990836828944575       -0.20664951597034942
0                         0.008100810081008101     1.1990765877877236       -0.2071213393885581
0                         0.008200820082008202     1.1990644538597228       -0.20759188805213324
0                         0.0083008300830083       1.199047281110455        -0.2080611619610748
0                         0.0084008400840084       1.199025069539921        -0.20852916111538286
0                         0.008500850085008501     1.1989978191481196       -0.20899588551505732
0                         0.008600860086008601     1.1989655299350521       -0.2094613351600983
0                         0.008700870087008702     1.1989282019007172       -0.2099255100505057
0                         0.0088008800880088       1.1988826176806693       -0.2103833416737801
0                         0.0089008900890089       1.1988272599511482       -0.21083532779858946
0                         0.009000900090009001     1.198763422984807        -0.21128417685014142
0                         0.009100910091009102     1.1986911067816466       -0.21172988882843596
0                         0.009200920092009202     1.1986103113416666       -0.2121724637334731
0                         0.0093009300930093       1.1985210366648669       -0.21261190156525286
0                         0.009400940094009401     1.1984232827512473       -0.21304820232377522
0                         0.009500950095009501     1.1983170496008084       -0.21348136600904014
0                         0.009600960096009602     1.1982023372135502       -0.21391139262104772
0                         0.009700970097009702     1.1980791455894717       -0.2143382821597978
0                         0.0098009800980098       1.197947474728574        -0.21476203462529062
0                         0.009900990099009901     1.1978073246308567       -0.2151826500175259
0                         0.010001000100010001     1.1976586952963197       -0.21560012833650388
0                         0.010101010101010102     1.1975015867249634       -0.2160144695822244
0                         0.0102010201020102       1.1973359989167875       -0.21642567375468752
0                         0.010301030103010301     1.1971619318717914       -0.2168337408538933
0                         0.010401040104010401     1.196979385589976        -0.21723867087984156
0                         0.010501050105010502     1.1967883600713414       -0.2176404638325325
0                         0.010601060106010602     1.1965888553158865       -0.21803911971196602
0                         0.0107010701070107       1.1963808713236124       -0.21843463851814215
0                         0.010801080108010801     1.196164408094519        -0.21882702025106088
0                         0.010901090109010901     1.195936340887357        -0.21921255973078987
0                         0.011001100110011002     1.1956973324022975       -0.21959293956461745
0                         0.011101110111011102     1.1954480982513016       -0.21996912261719548
0                         0.0112011201120112       1.1951886384343693       -0.22034110888852404
0                         0.011301130113011301     1.1949189529514999       -0.22070889837860302
0                         0.011401140114011402     1.1946390418026942       -0.22107249108743252
0                         0.011501150115011502     1.1943496957860604       -0.2214324625800379
0                         0.011601160116011602     1.1940625447512525       -0.22179776193332398
0                         0.011701170117011701     1.1937604774565618       -0.22215637311027778
0                         0.011801180118011801     1.193443493901988        -0.22250829611089923
0                         0.011901190119011902     1.1931115940875312       -0.22285353093518834
0                         0.012001200120012002     1.192764778013192        -0.22319207758314522
0                         0.0121012101210121       1.1924024159366045       -0.2235232545219299
0                         0.012201220122012201     1.192021633256753        -0.2238439078748887
0                         0.012301230123012302     1.1916269588632578       -0.22415890622634027
0                         0.012401240124012402     1.1912183927561184       -0.2244682495762844
0                         0.012501250125012502     1.190795934935335        -0.2247719379247212
0                         0.012601260126012601     1.1903595854009075       -0.22506997127165068
0                         0.012701270127012701     1.1899093441528354       -0.22536234961707274
0                         0.012801280128012802     1.1894452111911196       -0.22564907296098752
0                         0.012901290129012902     1.1889671865157594       -0.2259301413033949
0                         0.013001300130013002     1.1884752701267554       -0.22620555464429498
0                         0.013101310131013101     1.1879694620241066       -0.22647531298368767
0                         0.013201320132013201     1.1874497622078142       -0.22673941632157302
0                         0.013301330133013302     1.186916170677878        -0.2269978646579511
0                         0.013401340134013402     1.186368687434297        -0.2272506579928217
0                         0.013501350135013503     1.1858073124770718       -0.227497796326185
0                         0.013601360136013601     1.185232045806203        -0.22773927965804094
0                         0.013701370137013702     1.1846428874216897       -0.22797510798838957
0                         0.013801380138013802     1.1840398373235324       -0.22820528131723086
0                         0.013901390139013902     1.1834228955117307       -0.22842979964456475
0                         0.014001400140014001     1.1827920619862853       -0.2286486629703913
0                         0.014101410141014101     1.1821422706498546       -0.2288569691615744
0                         0.014201420142014202     1.1814728632896432       -0.22905626683058078
0                         0.014301430143014302     1.1807840978320738       -0.22924690955391375
0                         0.014401440144014403     1.1800759742771476       -0.22942889733157343
0                         0.014501450145014501     1.179348492624864        -0.22960223016355974
0                         0.014601460146014602     1.1786016528752228       -0.22976690804987265
0                         0.014701470147014702     1.1778354550282244       -0.22992293099051236
0                         0.014801480148014802     1.1770498990838685       -0.23007029898547862
0                         0.014901490149014903     1.1762449850421555       -0.23020901203477162
0                         0.015001500150015001     1.1754207129030847       -0.23033907013839117
0                         0.015101510151015102     1.1745770826666568       -0.23046047329633743
0                         0.015201520152015202     1.1737140943328717       -0.2305732215086104
0                         0.015301530153015303     1.1728317479017294       -0.23067731477520997
0                         0.015401540154015403     1.171930043373229        -0.23077275309613615
0                         0.015501550155015502     1.1710089807473716       -0.23085953647138907
0                         0.015601560156015602     1.170068560024157        -0.23093766490096862
0                         0.0157015701570157       1.169108781203585        -0.23100713838487485
0                         0.0158015801580158       1.1681296442856557       -0.23106795692310772
0                         0.0159015901590159       1.1671311492703687       -0.23112012051566724
0                         0.016001600160016        1.1661051324702585       -0.23115703902642742
0                         0.016101610161016102     1.165057214409574        -0.23118447704469286
0                         0.016201620162016202     1.1639874612025305       -0.2312024937626102
0                         0.016301630163016303     1.1628974887396062       -0.23121225685931004
0                         0.016401640164016403     1.161800327579631        -0.23122400172456492
0                         0.016501650165016504     1.1606744142837453       -0.23122284286179018
0                         0.0166016601660166       1.1595197488519489       -0.2312087802709859
0                         0.0167016701670167       1.1583337826703795       -0.23117999353502564
0                         0.0168016801680168       1.157113025571874        -0.2311340777314032
0                         0.0169016901690169       1.1558650867803242       -0.23107651899191411
0                         0.017001700170017002     1.1545899662957302       -0.23100731731655816
0                         0.017101710171017102     1.1532876641180918       -0.23092647270533545
0                         0.017201720172017203     1.1519581802474093       -0.23083398515824602
0                         0.017301730173017303     1.150601514683682        -0.23072985467528984
0                         0.017401740174017404     1.1492176674269112       -0.23061408125646685
0                         0.017501750175017504     1.1478066384770953       -0.23048666490177716
0                         0.0176017601760176       1.1463684278342356       -0.23034760561122064
0                         0.0177017701770177       1.1449030354983312       -0.23019690338479737
0                         0.0178017801780178       1.143410461469383        -0.23003455822250737
0                         0.017901790179017902     1.1418907057473902       -0.22986057012435065
0                         0.018001800180018002     1.140343768332353        -0.2296749390903271
0                         0.018101810181018103     1.1387696492242716       -0.2294776651204368
0                         0.018201820182018203     1.137168348423146        -0.22926874821467977
0                         0.018301830183018303     1.135539865928976        -0.22904818837305588
0                         0.018401840184018404     1.1338842017417616       -0.22881598559556532
0                         0.0185018501850185       1.1322013558615032       -0.228572139882208
0                         0.0186018601860186       1.1304913282882          -0.22831665123298384
0                         0.0187018701870187       1.1287433027607447       -0.22804334531735296
0                         0.018801880188018802     1.1269586094769728       -0.22775403210680067
0                         0.018901890189018902     1.125138060109915        -0.22744923303078035
0                         0.019001900190019003     1.1232816546595707       -0.22712894808929202
0                         0.019101910191019103     1.1213893931259404       -0.2267931772823357
0                         0.019201920192019203     1.1194612755090234       -0.2264419206099113
0                         0.019301930193019304     1.117497301808821        -0.22607517807201902
0                         0.019401940194019404     1.115497472025332        -0.22569294966865858
0                         0.0195019501950195       1.1134617861585565       -0.2252952353998302
0                         0.0196019601960196       1.111390244208495        -0.2248820352655338
0                         0.019701970197019702     1.1092828461751474       -0.22445334926576943
0                         0.019801980198019802     1.1071395920585134       -0.22400917740053694
0                         0.019901990199019903     1.1049604818585936       -0.22354951966983647
0                         0.020002000200020003     1.102745515575387        -0.22307437607366798
0                         0.020102010201020103     1.1004946932088948       -0.2225837466120315
0                         0.020202020202020204     1.0982080147591156       -0.22207763128492702
0                         0.020302030203020304     1.095885480226051        -0.22155603009235447
0                         0.0204020402040204       1.0935270896096996       -0.221018943034314
0                         0.0205020502050205       1.0911232493509377       -0.2204605837543588
0                         0.020602060206020602     1.0886795536784932       -0.2198858459830857
0                         0.020702070207020702     1.0861979406168634       -0.2192960501488134
0                         0.020802080208020803     1.0836890108575894       -0.21869234248816674
0                         0.020902090209020903     1.0811366930045203       -0.2180709044089279
0                         0.021002100210021003     1.07853651142535         -0.21743091049077623
0                         0.021102110211021104     1.0758817439136337       -0.21677041586487575
0                         0.021202120212021204     1.0731811724426648       -0.2160922642291027
0                         0.021302130213021304     1.0704347970124426       -0.21539645558345707
0                         0.0214021402140214       1.067642617622968        -0.21468298992793902
0                         0.0215021502150215       1.06480463427424         -0.21395186726254833
0                         0.021602160216021602     1.0619208469662598       -0.2132030875872851
0                         0.021702170217021702     1.0589912556990264       -0.21243665090214936
0                         0.021802180218021803     1.0560158604725405       -0.21165255720714105
0                         0.021902190219021903     1.0529946612868017       -0.21085080650226024
0                         0.022002200220022004     1.0499276581418098       -0.2100313987875068
0                         0.022102210221022104     1.0468148510375657       -0.20919433406288093
0                         0.022202220222022204     1.043656239974068        -0.20833961232838236
0                         0.0223022302230223       1.040451824951318        -0.20746723358401142
0                         0.0224022402240224       1.0372016059693152       -0.20657719782976788
0                         0.022502250225022502     1.0339055830280595       -0.20566950506565176
0                         0.022602260226022602     1.030563756127551        -0.2047441552916631
0                         0.022702270227022703     1.0271761252677893       -0.2038011485078019
0                         0.022802280228022803     1.023735799050139        -0.2028364304689261
0                         0.022902290229022904     1.0202381691668834       -0.20185015919175076
0                         0.023002300230023004     1.016683861163781        -0.20084301818063713
0                         0.023102310231023104     1.0130728750408309       -0.19981500743558508
0                         0.023202320232023205     1.0094052107980331       -0.19876612695659462
0                         0.0233023302330233       1.0056808684353888       -0.19769637674366597
0                         0.023402340234023402     1.0018998479528967       -0.19660575679679881
0                         0.023502350235023502     0.9980621493505575       -0.19549426711599327
0                         0.023602360236023603     0.9941677726283706       -0.19436190770124942
0                         0.023702370237023703     0.9902167177863368       -0.19320867855256715
0                         0.023802380238023804     0.9862089848244555       -0.19203457966994653
0                         0.023902390239023904     0.9821445737427269       -0.1908396110533876
0                         0.024002400240024004     0.978023484541151        -0.18962377270289027
0                         0.024102410241024105     0.9738457172197277       -0.18838706461845453
0                         0.0242024202420242       0.9696112717784574       -0.1871294868000805
0                         0.024302430243024302     0.9653201482173398       -0.1858510392477681
0                         0.024402440244024402     0.9609723465363746       -0.18455172196151728
0                         0.024502450245024503     0.9565652060789502       -0.18323141600137358
0                         0.024602460246024603     0.9520945366446978       -0.18188296490585537
0                         0.024702470247024703     0.9475568125397814       -0.18051628126722877
0                         0.024802480248024804     0.9429529038001291       -0.17913010480206298
0                         0.024902490249024904     0.9382828104257408       -0.177724435510358
0                         0.025002500250025005     0.9335465324166166       -0.17629927339211388
0                         0.025102510251025105     0.9287440697727566       -0.17485461844733058
0                         0.025202520252025202     0.9238754224941605       -0.1733904706760081
0                         0.025302530253025302     0.9189405905808288       -0.17190683007814644
0                         0.025402540254025403     0.913939574032761        -0.17040369665374563
0                         0.025502550255025503     0.9088723728499574       -0.1688810704028057
0                         0.025602560256025603     0.9037389870324177       -0.16733895132532653
0                         0.025702570257025704     0.8985394165801422       -0.16577733942130812
0                         0.025802580258025804     0.8932736614931309       -0.16419623469075062
0                         0.025902590259025905     0.8879417217713833       -0.1625956371336539
0                         0.026002600260026005     0.8825435974149001       -0.16097554675001804
0                         0.026102610261026102     0.8770792884236811       -0.15933596353984308
0                         0.026202620262026202     0.871548794797726        -0.15767688750312886
0                         0.026302630263026303     0.8659491130910637       -0.15599443239969343
0                         0.026402640264026403     0.8602709213379576       -0.15429195262145828
0                         0.026502650265026503     0.8545136421589037       -0.15257064042825322
0                         0.026602660266026604     0.8486772755539022       -0.15083049582007838
0                         0.026702670267026704     0.8427618215229532       -0.14907151879693367
0                         0.026802680268026804     0.836767280066056        -0.1472937093588191
0                         0.026902690269026905     0.8306936511832117       -0.14549706750573477
0                         0.027002700270027005     0.8245409348744197       -0.14368159323768054
0                         0.027102710271027102     0.81830913113968         -0.1418472865546565
0                         0.027202720272027203     0.8119982399789925       -0.1399941474566626
0                         0.027302730273027303     0.8056082613923573       -0.13812217594369885
0                         0.027402740274027403     0.7991391953797744       -0.13623137201576524
0                         0.027502750275027504     0.792591041941244        -0.13432173567286182
0                         0.027602760276027604     0.7859638010767658       -0.1323932669149885
0                         0.027702770277027704     0.7792574727863402       -0.1304459657421454
0                         0.027802780278027805     0.7724720570699664       -0.12847983215433242
0                         0.027902790279027905     0.7656048225923711       -0.12648963205946825
0                         0.028002800280028002     0.7586643528256918       -0.12448447314716617
0                         0.028102810281028102     0.7516300988601654       -0.12246317851655858
0                         0.028202820282028203     0.7444948841110987       -0.1204198271054411
0                         0.028302830283028303     0.7372692568393597       -0.11836654376985474
0                         0.028402840284028404     0.7299532170449493       -0.11630332850979966
0                         0.028502850285028504     0.7225467647278668       -0.11423018132527575
0                         0.028602860286028604     0.7150498998881124       -0.11214710221628303
0                         0.028702870287028705     0.7074626225256861       -0.11005409118282153
0                         0.028802880288028805     0.699784932640588        -0.10795114822489119
0                         0.028902890289028906     0.6920168302328179       -0.10583827334249206
0                         0.029002900290029002     0.684158315302376        -0.10371546653562423
0                         0.029102910291029103     0.6762093878492622       -0.10158272780428752
0                         0.029202920292029203     0.6681700478734763       -0.099440057148482
0                         0.029302930293029304     0.6600402953750186       -0.0972874545682077
0                         0.029402940294029404     0.651820130353889        -0.09512492006346457
0                         0.029502950295029504     0.6435095528100874       -0.09295245363425265
0                         0.029602960296029605     0.635108562743614        -0.09077005528057196
0                         0.029702970297029705     0.6266171601544687       -0.08857772500242243
0                         0.029802980298029805     0.6180353450426513       -0.08637546279980411
0                         0.029902990299029902     0.6093564974156791       -0.08416052174625879
0                         0.030003000300030003     0.6005653833810746       -0.08194253224034312
0                         0.030103010301030103     0.5916640408463354       -0.07972795872407012